                               Psi4 1.9.1 release

  ==> Input File <==

--------------------------------------------------------------------------
molecule form {
    pubchem:formaldehyde
}

set basis cc-pVTZ
optimize('ccsd(t)', dertype='energy')
--------------------------------------------------------------------------

                               Psi4 1.9.1 release
    Molecular point group: c1
  Charge       = 0
  Multiplicity = 1
  Basis Set: CC-PVTZ
    Blend: CC-PVTZ
  @RHF Final Energy:  -113.90922904726325
    Total Energy =                       -113.9092290472632527
 Dipole X            :          1.1108024           -2.2486950           -1.1378926
 Dipole Y            :         -0.0001464            0.0001749            0.0000285
 Dipole Z            :          0.0000230            0.0000000            0.0000230
 Magnitude           :                                                    1.1378926
      * MP2 total energy                      = -114.334715725166703
      * CCSD total energy                     = -114.344646041971657
      * CCSD(T) total energy                  = -114.361964572829123
                               Psi4 1.9.1 release
    Molecular point group: c1
  Basis Set: CC-PVTZ
    Blend: CC-PVTZ
  @RHF Final Energy:  -113.90937883857491
    Total Energy =                       -113.9093788385749093
      * MP2 total energy                      = -114.334763862027060
      * CCSD total energy                     = -114.344717502175428
      * CCSD(T) total energy                  = -114.362015113021997
                               Psi4 1.9.1 release
  Basis Set: CC-PVTZ
    Blend: CC-PVTZ
  @RHF Final Energy:  -113.90907663081062
    Total Energy =                       -113.9090766308106168
      * MP2 total energy                      = -114.334665096208255
      * CCSD total energy                     = -114.344572036047097
      * CCSD(T) total energy                  = -114.361911528900407
                               Psi4 1.9.1 release
  Basis Set: CC-PVTZ
    Blend: CC-PVTZ
  @RHF Final Energy:  -113.90922825162865
    Total Energy =                       -113.9092282516286474
      * MP2 total energy                      = -114.334715051504375
      * CCSD total energy                     = -114.344645362031500
      * CCSD(T) total energy                  = -114.361963919396871
                               Psi4 1.9.1 release
  @RHF Final Energy:  -113.90922811168625
    Total Energy =                       -113.9092281116862466
      * MP2 total energy                      = -114.334714935777953
      * CCSD total energy                     = -114.344645244522624
      * CCSD(T) total energy                  = -114.361963806108875
                               Psi4 1.9.1 release
  @RHF Final Energy:  -113.90922820896486
    Total Energy =                       -113.9092282089648620
      * MP2 total energy                      = -114.334714977229382
      * CCSD total energy                     = -114.344645287655823
      * CCSD(T) total energy                  = -114.361963837953965
                               Psi4 1.9.1 release
  @RHF Final Energy:  -113.90922815805776
    Total Energy =                       -113.9092281580577577
      * MP2 total energy                      = -114.334714936605977
      * CCSD total energy                     = -114.344645246147437
      * CCSD(T) total energy                  = -114.361963798277799
                               Psi4 1.9.1 release
  @RHF Final Energy:  -113.90923690314523
    Total Energy =                       -113.9092369031452279
      * MP2 total energy                      = -114.334727923981930
      * CCSD total energy                     = -114.344655153674339
      * CCSD(T) total energy                  = -114.361971064152030
                               Psi4 1.9.1 release
                               Psi4 1.9.1 release
                               Psi4 1.9.1 release
                               Psi4 1.9.1 release
                               Psi4 1.9.1 release
                               Psi4 1.9.1 release
                               Psi4 1.9.1 release
                               Psi4 1.9.1 release
                               Psi4 1.9.1 release
                               Psi4 1.9.1 release
                               Psi4 1.9.1 release
                               Psi4 1.9.1 release
                               Psi4 1.9.1 release
                               Psi4 1.9.1 release
                               Psi4 1.9.1 release
                               Psi4 1.9.1 release
                               Psi4 1.9.1 release
                               Psi4 1.9.1 release
                               Psi4 1.9.1 release
                               Psi4 1.9.1 release
                               Psi4 1.9.1 release
                               Psi4 1.9.1 release
                               Psi4 1.9.1 release
                               Psi4 1.9.1 release
                               Psi4 1.9.1 release
                               Psi4 1.9.1 release
                               Psi4 1.9.1 release
                               Psi4 1.9.1 release
                               Psi4 1.9.1 release
                               Psi4 1.9.1 release
                               Psi4 1.9.1 release
                               Psi4 1.9.1 release
                               Psi4 1.9.1 release
                               Psi4 1.9.1 release
                               Psi4 1.9.1 release
                               Psi4 1.9.1 release
                               Psi4 1.9.1 release
                               Psi4 1.9.1 release
                               Psi4 1.9.1 release
                               Psi4 1.9.1 release
                               Psi4 1.9.1 release
                               Psi4 1.9.1 release
                               Psi4 1.9.1 release
                               Psi4 1.9.1 release
                               Psi4 1.9.1 release
                               Psi4 1.9.1 release
                               Psi4 1.9.1 release
                               Psi4 1.9.1 release
                               Psi4 1.9.1 release
                               Psi4 1.9.1 release
  @RHF Final Energy:  -113.91168185340275
    Total Energy =                       -113.9116818534027544
      * MP2 total energy                      = -114.335220046758536
      * CCSD total energy                     = -114.345588530566275
      * CCSD(T) total energy                  = -114.362498088570618
                               Psi4 1.9.1 release
  @RHF Final Energy:  -113.91168173078982
    Total Energy =                       -113.9116817307898231
      * MP2 total energy                      = -114.335219945904996
      * CCSD total energy                     = -114.345588428026161
      * CCSD(T) total energy                  = -114.362497989798044
                               Psi4 1.9.1 release
  @RHF Final Energy:  -113.91168129686984
    Total Energy =                       -113.9116812968698440
      * MP2 total energy                      = -114.335224089229797
      * CCSD total energy                     = -114.345589773204935
      * CCSD(T) total energy                  = -114.362496701918900
                               Psi4 1.9.1 release
  @RHF Final Energy:  -113.91167963583393
    Total Energy =                       -113.9116796358339343
      * MP2 total energy                      = -114.335213353357531
      * CCSD total energy                     = -114.345584636742316
      * CCSD(T) total energy                  = -114.362496840698583
                               Psi4 1.9.1 release
  @RHF Final Energy:  -113.91167807573376
    Total Energy =                       -113.9116780757337608
      * MP2 total energy                      = -114.335216446381921
      * CCSD total energy                     = -114.345584966753322
      * CCSD(T) total energy                  = -114.362494545241034
                               Psi4 1.9.1 release
  Basis Set: CC-PVTZ
    Blend: CC-PVTZ
  @RHF Final Energy:  -113.91167807624841
    Total Energy =                       -113.9116780762484069
      * MP2 total energy                      = -114.335216446929053
      * CCSD total energy                     = -114.345584967258674
      * CCSD(T) total energy                  = -114.362494545706014
                               Psi4 1.9.1 release
  Basis Set: CC-PVTZ
    Blend: CC-PVTZ
  @RHF Final Energy:  -113.91171001486602
    Total Energy =                       -113.9117100148660171
      * MP2 total energy                      = -114.335226357597861
      * CCSD total energy                     = -114.345595391184048
      * CCSD(T) total energy                  = -114.362495489840057
                               Psi4 1.9.1 release
    Molecular point group: c1
  Charge       = 0
  Multiplicity = 1
  Basis Set: CC-PVTZ
    Blend: CC-PVTZ

    Orbital Energies [Eh]
    ---------------------

    Doubly Occupied:

       1A    -20.574504     2A    -11.339204     3A     -1.403385
       4A     -0.869905     5A     -0.693126     6A     -0.650104
       7A     -0.534318     8A     -0.441733

  @RHF Final Energy:  -113.91164822973997

   => Energetics <=

    Nuclear Repulsion Energy =             31.3041973623653398
    One-Electron Energy =                -217.4191326193692078
    Two-Electron Energy =                  72.2032870272639116
    Total Energy =                       -113.9116482297399671
 Dipole X            :          1.3641489           -2.4646174           -1.1004685
 Dipole Y            :          0.0007797           -0.0007158            0.0000639
 Dipole Z            :          0.0004253           -0.0004170            0.0000083
 Magnitude           :                                                    1.1004685
      * MP2 total energy                      = -114.335208420196892
      * CCSD total energy                     = -114.345576404239992
      * CCSD(T) total energy                  = -114.362495434927908
    Final optimized geometry and variables:
    Molecular point group: c1

    Geometry (in Angstrom), charge = 0, multiplicity = 1:

    O            0.594370505132    -0.000049614464    -0.000015278280
    C           -0.612234669714    -0.000040922284    -0.000022745348
    H           -1.192880341308     0.242823458206    -0.900492129486
    H           -1.192895031652    -0.242559787332     0.900530153114

*** Psi4 exiting successfully. Buy a developer a beer!
